FoamFile
{
    version     2.0;
    format      ascii;
    class       surfaceScalarField;
    object      phi;
}

dimensions      [0 3 -1 0 0 0 0];

internalField   uniform 0;
boundaryField
{
    inlet
    {
        type            calculated;
        value           $internalField;
    }
    outlet
    {
        type            calculated;
        value           $internalField;
    }
    flap
    {
        type            calculated;
        value           uniform 0;
    }
    upperWall
    {
        type            calculated;
        value           uniform 0;
    }
    lowerWall
    {
        type            calculated;
        value           uniform 0;
    }
    frontAndBack
    {
        type            empty;
        value           nonuniform 0;
    }
}
